<simulation>
   <prng>
      <seed>32415</seed>
      <state>[{"bit_generator": "MT19937", "state": {"key": [950122456, 1465192166, 2174536533, 4132853862, 3097502249, 1447593533, 2264303190, 2995503019, 3898494046, 201711723, 1870065588, 2489069076, 3590290086, 3019376999, 1446024237, 1437690264, 3825460106, 3132790337, 3132458875, 3571724980, 1466884454, 4274885038, 1390239651, 4048511185, 3895160582, 2831274320, 1618750684, 3698721355, 3715320546, 3289259705, 2596496204, 4085897790, 2522794423, 3767525519, 1627905670, 3814836112, 3195005089, 2356912448, 1698607590, 2178233509, 1323997839, 2938891713, 2683477719, 808863256, 3512723037, 768947288, 2559321695, 2732531859, 287083993, 3223046921, 1285030228, 753674490, 3156395726, 2191981970, 3295586956, 1480324148, 3785194299, 1227982992, 435842090, 1610690401, 3598669425, 1113061054, 4035587439, 3964588832, 2098181604, 476483807, 991683025, 2038798929, 273457036, 3259147908, 3586100578, 4252011058, 723325674, 202086685, 3224340840, 2227091517, 1770756341, 2692122920, 2011139680, 909133670, 4075771148, 3827744577, 2202302902, 3210673374, 2446191107, 3259907456, 4136900407, 604664634, 1444261508, 2132767797, 2347769418, 1641134721, 4005787918, 3859304465, 3121074455, 2457917481, 209761752, 3105873703, 1807132002, 1577734723, 208784253, 457533177, 1822541588, 520045711, 720688833, 2380898166, 2815670911, 2172644290, 4184404702, 593142014, 4011964885, 3791861199, 267634810, 1915609450, 2815771544, 746240522, 2571503835, 924070262, 184017337, 1952054028, 2915680150, 882209439, 2761341228, 1635845331, 2263702762, 856539931, 1117356494, 326202268, 1513933642, 3166190546, 41868000, 2751066272, 2468564426, 2884534722, 3642260825, 1953404015, 1043421829, 2958846014, 238330909, 1527781128, 1689699621, 1907995984, 3486147337, 424973816, 3205145645, 3886512214, 1815451182, 1161959277, 3646682923, 3517930227, 1795283080, 2517038554, 3822651129, 1125022902, 3372779766, 948226336, 2710550296, 2414612322, 1855879849, 2556766474, 557746959, 3433786738, 748483232, 1319335686, 2015731175, 2272013759, 2497411807, 2156594466, 1174956562, 4040359022, 1803227122, 1938066409, 1096547603, 2871674086, 3796112520, 426247347, 2719310375, 178761743, 2989181396, 1386765102, 3191362606, 1549631901, 2782471318, 1254404340, 1336067376, 124837280, 3796819900, 2663493716, 3646970940, 2015864147, 12263079, 2435851054, 3797094153, 2176650843, 2058257145, 847183134, 3017289445, 3794753661, 2201145393, 158798458, 2470820632, 1876645725, 605851654, 3415609861, 1346967243, 3844935651, 3056688794, 2718388225, 1563488971, 3760428228, 266046298, 370314941, 2515990932, 4111162701, 1992994411, 979994357, 3494482430, 1139487027, 2662160523, 581612412, 1548458362, 2793823362, 2927132837, 1595136136, 1409534368, 2180090055, 3731431218, 562377003, 3650267696, 2285767947, 4052383430, 2776844546, 1532251849, 1283209699, 3391246313, 1841423399, 3764026058, 1763528599, 2298960788, 1191742289, 3627969559, 2216130230, 895948869, 3824078354, 2389203449, 3840408465, 607187988, 2192565753, 3280380539, 3099744937, 1360730407, 1475062048, 3421295898, 1879567400, 2671962929, 3393464164, 4186616684, 1714657695, 2491780001, 73441487, 340678324, 1541176014, 3731025967, 4148679915, 2351078429, 3678502431, 3341319417, 2805701670, 1879708311, 1934684016, 842648901, 3951315653, 2687490459, 500835724, 1202812794, 2438818750, 3893168713, 1488537058, 965009079, 228280214, 2475250707, 3379013977, 3838624360, 808855315, 1907274597, 1547766937, 411682463, 2251940190, 3189777204, 3150679297, 3017096436, 86034761, 1598239084, 2513181327, 2134334047, 2393608571, 1820609600, 503555094, 2233597704, 3853041546, 3069938422, 563824938, 1737636099, 579345940, 3074781925, 4102743250, 2370466411, 3282706578, 1893746350, 4186711631, 374608012, 4174621164, 3607610116, 473988950, 53373297, 173966319, 167614115, 3238542015, 3015937072, 3202231060, 722055397, 2759464535, 1051884874, 1213986239, 2303831513, 2297224009, 3482104137, 3667236618, 4029303600, 1684841750, 1865279279, 3776343202, 1036851287, 2976617964, 940791492, 1148181657, 883376476, 3275620029, 128427390, 1263148409, 3849333159, 4209012752, 2146809692, 3701832205, 3936591814, 1639498136, 3630687319, 2972921354, 2576035344, 3508729652, 1712175393, 2883182390, 194322191, 2461170531, 3195707310, 1459733587, 1834744682, 2660720143, 284382409, 307405315, 3006723766, 693653747, 2149295678, 3249011011, 3525008041, 2994985343, 2993034339, 366193816, 2980583028, 3727889224, 608177290, 1822358777, 10679319, 558967200, 3900899363, 2267031307, 2982976384, 929431556, 3403608522, 1915107476, 2017422774, 392465472, 301829784, 1967147791, 748556240, 691416744, 4032168941, 1483927088, 4282974184, 1527345312, 2700684940, 1793466180, 2737912333, 2568373865, 3819582358, 1769317923, 1415187530, 1348462417, 1946245399, 1330882409, 480336191, 95411961, 1420258744, 1169749288, 3359487731, 3516290662, 2045619600, 714771222, 1797672208, 2356290344, 2961875917, 2443037993, 1121379905, 2198991680, 3741349500, 1486660813, 2767053629, 4119549164, 2946972092, 3683700761, 4143934427, 4291642545, 3618139572, 4151591769, 3638601664, 1796121942, 2330137991, 3913099323, 2868329357, 2556529992, 3537860336, 523986470, 2882025211, 394909764, 1005102715, 55349077, 1120048153, 1104911359, 3099011499, 434873030, 2961922329, 2479443884, 1557161789, 3896523761, 388677323, 3262310933, 3813472525, 1111107674, 3015068862, 2610093428, 3634054099, 1390864095, 4040603413, 1109823797, 467746086, 608862919, 4172050746, 3547488968, 2446586261, 2459672322, 1767325018, 2850998313, 45164909, 1657610648, 832669622, 280708025, 453551245, 1628011017, 448708771, 2049591516, 2889761888, 565212332, 509271859, 3131794485, 2689430800, 2948284237, 4106688302, 3072359909, 1922588072, 3352337600, 1425512172, 1180916352, 496030048, 3040205784, 1457825626, 2572245177, 303872557, 3389425516, 1975855513, 4178386036, 404197117, 3198049475, 1735390032, 29434443, 2165281495, 98657913, 479021068, 2088431797, 2326954953, 3134533479, 2639129227, 2164555490, 4116173910, 911342100, 792489211, 3704931053, 872777465, 3000401098, 241273599, 2674872904, 996013402, 634572730, 3746495726, 1268823443, 3567589989, 3801258082, 3490752328, 3958867904, 1957404169, 3220447989, 1250231102, 1184136139, 2488565254, 3744074366, 204399274, 428278564, 3410540488, 2673464516, 671097195, 2567718103, 2325597329, 3567008586, 4008482310, 2970684873, 2837226310, 3101225856, 823314201, 3320005720, 226264185, 422228779, 2695764604, 2783578890, 976550874, 3749617379, 49136622, 682873063, 2531134834, 1663096174, 26700472, 3949930063, 3754736079, 571495142, 1553612598, 1586849084, 230109371, 3644808623, 1048338103, 1381432144, 2668653611, 822139627, 2091786455, 53995121, 4128395266, 708825326, 6152129, 415926609, 374064598, 83670732, 860872753, 1484736409, 2109038438, 3664638442, 2508732100, 542797180, 454622002, 2311024308, 446001508, 1148263697, 2129237806, 2482445978, 375829181, 2221381855, 1167963506, 3393220373, 4141757957, 168381691, 2762880746, 947738304, 4007018023, 913780786, 497757330, 1581508329, 3021924600, 2115779359, 1005673763, 3893028112, 1870453624, 2618323487, 1008459777, 1600643575, 1546357012, 2787312042, 79418673, 110503733, 873957026, 3962192799, 2869769401, 3461900865, 1345133830, 3310351430, 3204245941, 3869698745, 671239101, 740771598, 118478611, 1627515522, 3102188074, 1752766149, 4124851741, 2325269276, 602068882, 3235225588, 672675041, 1208670118], "pos": 93}}]</state>
   </prng>
   <output prefix='simulation'>
      <properties shape='(5)' stride='40'> [ step, time{picosecond}, conserved, temperature{kelvin}, potential ] </properties>
      <trajectory filename='pos' stride='4' format='ase' flush='100'>positions</trajectory>
      <checkpoint stride='200'>53</checkpoint>
   </output>
   <step>10400</step>
   <total_steps>200000</total_steps>
   <ffsocket mode='unix' name='maceoff23'>
      <address>driver</address>
   </ffsocket>
   <ffsocket mode='unix' name='maceoff23-pigs'>
      <address>driver-pigs</address>
   </ffsocket>
   <system>
      <forces>
         <force forcefield='maceoff23'>
         </force>
         <force forcefield='maceoff23-pigs'>
         </force>
      </forces>
      <ensemble>
         <temperature>  9.50044560e-04</temperature>
         <eens>  1.17545700e-03</eens>
         <hamiltonian_weights shape='(2)'> [   1.00000000e+00,   1.00000000e+00 ] </hamiltonian_weights>
         <time>  2.14975140e+05</time>
      </ensemble>
      <motion mode='dynamics'>
         <dynamics mode='nvt'>
            <thermostat mode='svr'>
               <ethermo>  4.96714757e-02</ethermo>
               <tau>  4.13413730e+03</tau>
            </thermostat>
            <timestep>  2.06706865e+01</timestep>
            <nmts shape='(1)'> [ 1 ] </nmts>
         </dynamics>
      </motion>
      <beads natoms='96' nbeads='1'>
         <q shape='(1, 288)'>
          [   7.77844285e+00,   9.91485372e+00,   2.59954331e-01,   6.78626875e+00,   8.42524648e+00, 
              2.91633363e-01,   9.31687979e+00,   9.67930065e+00,   1.12200201e+00,   2.21026520e+01, 
              2.02664113e+01,  -8.09284289e-01,   2.32706797e+01,   1.89279683e+01,  -1.09134662e+00, 
              2.08833311e+01,   1.95528081e+01,   3.02559919e-01,   3.71806509e+00,   5.59765953e+00, 
              1.05243924e+01,   4.51533500e+00,   7.22904143e+00,   1.00116571e+01,   4.92834929e+00, 
              4.82923054e+00,   1.15820269e+01,  -2.02581021e+00,  -2.65377907e+00,   9.68592824e+00, 
             -3.75854874e+00,  -2.11782569e+00,   9.76811762e+00,  -1.59626283e+00,  -2.48439127e+00, 
              1.14625027e+01,  -1.29994530e+01,  -4.56020989e+00,   2.07767358e+01,  -1.22246142e+01, 
             -6.14047338e+00,   2.03052429e+01,  -1.20439258e+01,  -3.79292009e+00,   2.21369963e+01, 
             -4.25922851e+00,   2.02290618e-01,   1.72556153e+01,  -3.12273224e+00,  -7.74605956e-01, 
              1.83899592e+01,  -3.13484359e+00,   1.15249689e+00,   1.62313961e+01,   1.65233065e+01, 
              5.52814233e+00,   3.86793129e+00,   1.68715622e+01,   6.76568506e+00,   5.22018300e+00, 
              1.71858720e+01,   4.04513152e+00,   4.55174103e+00,  -6.45339091e+00,   4.70967411e+00, 
              1.08306394e-01,  -5.43318767e+00,   5.77838641e+00,   1.13219152e+00,  -5.53766239e+00, 
              3.17804180e+00,   3.15539529e-01,   1.83432967e+01,  -1.48423451e+00,   1.61370980e+00, 
              1.83576694e+01,  -3.69858006e-01,   3.20450768e+00,   1.91677158e+01,  -2.97053133e+00, 
              2.20632983e+00,   1.16547621e+01,   6.78444547e+00,   1.43006788e+01,   1.16578705e+01, 
              8.43258968e+00,   1.48559969e+01,   1.16958349e+01,   6.02744079e+00,   1.58905704e+01, 
             -5.78899750e-01,   9.88497422e-01,   6.02920117e+00,  -9.18392171e-01,  -2.91955403e-01, 
              7.34425723e+00,   1.11974334e+00,   1.51675920e+00,   6.23254074e+00,   8.94484287e+00, 
             -1.87169330e+00,   5.07840334e+00,   9.55695586e+00,  -1.67487477e-01,   4.61740317e+00, 
              9.22844621e+00,  -2.22378318e+00,   6.74572181e+00,   4.57282047e+00,   5.89769474e+00, 
              3.45544732e-01,   4.44682304e+00,   4.00754541e+00,   4.58758007e-01,   2.88106403e+00, 
              6.60774999e+00,   3.99123504e-01,   6.43449417e-01,   1.24080731e+01,   7.81525379e+00, 
              9.25978718e-01,   1.25246329e+01,   5.98990045e+00,  -6.26943374e-01,   1.35805185e+01, 
              8.45805074e+00,  -8.57997930e+00,   1.08423030e+01,   9.27008913e+00,  -8.17112435e+00, 
              9.00377789e+00,   8.90123896e+00,  -9.18213180e+00,   1.09722530e+01,   1.09643574e+01, 
             -1.01742178e+00,   7.45674247e+00,   8.26161955e+00,  -9.47962693e-01,   9.27471861e+00, 
              8.49730594e+00,   3.01258384e-01,   6.64474730e+00,   9.32345816e+00,  -7.65064810e+00, 
              5.75053667e+00,   8.99865814e+00,  -7.73000209e+00,   5.95700242e+00,   1.08161506e+01, 
             -5.93567927e+00,   5.66649899e+00,   8.49771627e+00,  -2.32375964e+00,   1.03923264e+01, 
              1.54101913e+01,  -2.79820640e+00,   8.98003768e+00,   1.44081859e+01,  -7.37915760e-01, 
              1.10462871e+01,   1.46388886e+01,   1.94019465e+01,   8.45853303e+00,   6.44042513e-01, 
              1.87144172e+01,   8.58063732e+00,  -9.81497066e-01,   1.80913415e+01,   7.85408758e+00, 
              1.73103555e+00,   9.64714223e+00,   3.21784017e+00,   3.79710619e+00,   1.05631815e+01, 
              4.19454585e+00,   5.00550061e+00,   1.06759324e+01,   3.96451695e+00,   2.40637032e+00, 
              2.47997712e+01,   1.05199407e+01,   9.92923813e+00,   2.30870484e+01,   1.11324457e+01, 
              9.47433006e+00,   2.60722182e+01,   1.16103680e+01,   9.00775733e+00,  -5.21861298e-01, 
              2.26389915e+01,   1.53141576e+01,   1.33013665e-01,   2.39407012e+01,   1.42397938e+01, 
              8.82887299e-01,   2.16706113e+01,   1.61352466e+01,   9.71636385e+00,   1.94108996e+01, 
              1.40742636e+01,   1.12093220e+01,   2.00179920e+01,   1.48019256e+01,   8.49051540e+00, 
              2.07733336e+01,   1.45243759e+01,   1.32029927e+01,   1.32887121e+01,   1.72529219e+01, 
              1.46978287e+01,   1.25935565e+01,   1.63832563e+01,   1.37355050e+01,   1.50289329e+01, 
              1.73725248e+01,   4.55257513e+00,   2.73365348e+00,   5.81036338e+00,   4.58798342e+00, 
              3.92443085e+00,   7.20071856e+00,   6.15614669e+00,   2.96494287e+00,   5.12872094e+00, 
              1.35343485e+01,   1.00785423e+01,   2.05070292e+00,   1.36249434e+01,   1.09378407e+01, 
              3.64255980e+00,   1.34605132e+01,   1.13564739e+01,   7.47408397e-01,   2.84099059e+00, 
              1.22428522e+01,   1.48694595e+01,   3.80394975e+00,   1.34694445e+01,   1.56561463e+01, 
              3.94512273e+00,   1.13463462e+01,   1.35840436e+01,   6.41290474e+00,   2.38827335e+01, 
              1.49628931e+01,   5.77908766e+00,   2.45099501e+01,   1.65379502e+01,   7.71579244e+00, 
              2.49044314e+01,   1.42582735e+01,   5.71938414e+00,   1.62503140e+01,   1.59941603e+01, 
              5.96717868e+00,   1.62292524e+01,   1.77907354e+01,   6.88566867e+00,   1.74770582e+01, 
              1.53977569e+01,   9.73248977e+00,   1.14714496e+01,   1.43404734e+01,   8.13918258e+00, 
              1.16820167e+01,   1.52177806e+01,   1.08714022e+01,   1.23827996e+01,   1.54809830e+01, 
              1.55744119e+00,   1.35005991e+01,   2.72798444e+00,   3.32649721e+00,   1.40365344e+01, 
              2.52843315e+00,   1.38107118e+00,   1.22187298e+01,   1.50894935e+00,   1.21633682e+01, 
              1.66494663e+01,   1.03301877e+01,   1.12805106e+01,   1.74589834e+01,   1.17012040e+01, 
              1.23339549e+01,   1.48722235e+01,   1.05200449e+01 ]
         </q>
         <p shape='(1, 288)'>
          [   6.01097680e+00,   9.83718300e-01,   2.53568025e+00,  -1.46607497e-02,  -5.47953704e-02, 
              1.79841714e+00,  -3.01272272e+00,   1.39195186e+00,  -9.79823868e-01,   2.22734677e+00, 
             -4.52499313e+00,  -5.44728317e+00,   1.88201902e+00,  -1.59589532e+00,   5.08591149e-01, 
              1.17643205e+00,  -5.74730011e-01,   5.90374011e-01,  -4.32408402e+00,   5.00764422e+00, 
             -9.42444952e+00,  -2.36483353e-01,  -1.51942249e+00,   1.39449319e+00,   8.28818983e-02, 
              3.11074756e+00,   1.17072018e+00,  -4.33722051e+00,   1.29610325e+00,  -3.19742963e+00, 
              3.22531803e-01,   3.06056387e-01,   1.07377831e+00,   1.97422623e+00,  -1.84445580e-01, 
             -1.31330749e+00,   1.79846987e+00,  -8.29443894e+00,  -1.20171849e+00,  -2.14345293e+00, 
              3.13512404e-01,  -6.01045652e-01,  -1.95987205e+00,  -3.04457166e-01,  -1.58734488e+00, 
             -8.35987878e+00,  -6.79354376e+00,   2.23822701e-01,   1.17311779e+00,  -5.78487158e-01, 
             -4.10607267e-01,  -4.34082637e-01,  -3.16861065e+00,  -1.16863974e-01,   5.45218998e+00, 
              1.17728249e+00,   3.20860134e+00,   4.37202589e-01,   1.96160531e+00,  -9.65503494e-02, 
             -3.87042500e-01,  -5.49459623e-01,  -2.00381676e+00,  -1.06614340e+00,   1.47644284e+00, 
             -2.69354207e+00,  -1.52272250e+00,   3.37834064e-01,  -7.15659969e-01,  -7.01456310e-01, 
             -5.03911975e-02,  -1.76147845e+00,  -3.24755942e+00,  -5.40830836e+00,  -4.79675594e-02, 
              3.57677791e-02,  -5.04906257e-01,  -1.12537353e+00,  -1.06173552e-01,   4.75286120e-01, 
              2.37457934e+00,  -1.46180344e-01,  -4.27314150e+00,  -1.76635347e-01,   1.65680555e+00, 
             -4.83835650e-01,   1.50942691e+00,   7.86716688e-01,   1.63691988e+00,   1.63258759e-01, 
              5.38735749e+00,   7.35509273e+00,   1.20617936e+01,   1.72889329e+00,   1.18002348e-01, 
              1.40658751e-01,   1.26702596e+00,   9.54205225e-01,   2.51619532e-02,  -1.58575707e+01, 
              4.37073689e+00,  -2.58329610e+00,   2.37899378e+00,   1.59026652e+00,   2.19483177e+00, 
             -5.45926917e-01,   4.70354095e-01,  -2.79477063e-01,   7.46079870e-02,   4.35255507e+00, 
             -5.90425488e+00,   2.50889372e+00,  -5.23167181e+00,  -9.57975093e-01,  -1.70602907e+00, 
              8.89715621e-01,  -1.04377595e+00,   3.27353373e+00,  -7.03086529e+00,   1.01856549e-01, 
              1.75623178e-01,   1.90673927e-01,  -7.38406377e-01,   1.44806308e+00,  -5.21855391e-01, 
             -5.39841300e-01,   4.58593763e+00,   4.58046006e+00,   6.26512616e+00,  -1.75919431e+00, 
             -2.62907112e+00,   1.05175312e+00,   1.05102152e+00,  -7.06461811e-02,   9.87909415e-01, 
              1.41713051e+00,  -3.61789672e+00,   4.97771093e+00,   3.77566071e-02,   6.73320469e-01, 
              4.83729251e-01,   1.60330174e+00,  -1.16849500e+00,   7.35060717e-01,  -4.42563075e+00, 
              1.47169351e+00,   1.68915927e+00,  -5.29255236e-01,   1.07144298e+00,   1.50615173e+00, 
              2.59529262e-01,  -2.22520661e+00,   2.18824717e+00,   1.22895172e+01,   2.47792307e+00, 
              7.89817611e+00,  -1.66167822e+00,  -5.04701476e-01,   1.23140796e-01,   3.81817156e-01, 
              3.35003010e-01,   1.25583457e+00,  -2.82189428e+00,   1.15983898e+00,   4.71337238e-01, 
              7.22904819e-01,   1.76954593e+00,   1.31005660e+00,   1.67506221e+00,   6.43722384e-02, 
             -5.14020522e-01,  -4.62848686e+00,   5.84699187e-01,  -8.22029145e+00,  -1.20935319e+00, 
              4.84541580e-01,  -1.67211162e+00,   4.61586598e-01,  -3.02854623e-01,  -2.44768815e-01, 
              8.04862320e+00,  -1.86601581e+00,  -6.36319931e-02,  -1.80862300e+00,  -8.25650941e-01, 
              3.16939758e-01,   3.46084853e-01,   7.94277141e-01,   1.10525403e+00,  -2.24024148e+00, 
              5.45052929e+00,   4.51570600e+00,  -1.04288125e+00,   1.65232636e-01,   1.43593689e+00, 
              1.39965997e+00,   1.45735801e+00,   2.06593100e+00,   4.79323529e+00,   8.54913163e+00, 
             -4.77409770e+00,  -1.15098774e+00,  -3.35700915e-01,  -2.47197508e+00,   2.05515525e+00, 
              8.49993027e-01,  -7.57294503e-01,   7.93589405e-01,   2.23100713e+00,   2.32991854e+00, 
             -2.05237552e-01,  -2.83372040e-01,   2.65390394e-02,  -7.91793577e-01,  -2.10927340e-01, 
              1.27081462e+00,  -6.84948297e+00,  -5.48982174e+00,  -1.18367683e+01,  -7.69987504e-01, 
              1.65300926e+00,  -4.91149834e-01,  -1.00004711e+00,   1.46444866e-01,  -3.08510679e-01, 
              1.35806738e+00,   1.64311752e+00,  -7.29360576e+00,   2.12972461e+00,   7.49877260e-01, 
             -2.87686466e-01,  -3.75234156e-01,   7.43560849e-01,   3.09565695e-01,  -7.67828829e+00, 
             -3.68126296e+00,   5.79448155e+00,  -6.62418026e-01,  -4.55775186e-01,   1.79096204e+00, 
              1.62006141e+00,  -7.77572414e-01,   1.01357555e+00,  -5.02792134e-01,  -3.13810591e-01, 
              4.25987079e-01,   1.04097553e+00,   1.59585553e-01,   1.20191248e+00,  -1.95222854e+00, 
             -3.60072725e-01,   4.62333436e-01,   8.58213805e+00,  -2.81600207e+00,  -2.63312151e+00, 
              1.04240919e-01,   2.39564240e+00,  -1.02487320e-01,   4.26603638e-02,   2.22279685e+00, 
             -1.07760503e+00,   6.86577660e+00,  -8.87773172e+00,   7.67277746e+00,  -6.25575900e-01, 
             -1.55757218e+00,   8.16374813e-01,  -1.35639893e+00,  -6.62728451e-01,   9.68145920e-01, 
              2.13739658e+00,   4.15278540e+00,  -7.11215990e+00,  -1.64867532e-01,   4.73362425e-01, 
              7.45719212e-01,  -6.68534606e-01,  -2.07927651e+00,  -5.97817637e-01,  -8.46985865e+00, 
              3.64559168e+00,  -1.42140334e+00,  -1.85460188e+00,   1.83549582e+00,   7.44819620e-01, 
             -1.74779561e+00,  -9.97926931e-01,  -2.04701463e-01 ]
         </p>
         <m shape='(96)'>
          [   2.91651223e+04,   1.83736223e+03,   1.83736223e+03,   2.91651223e+04,   1.83736223e+03, 
              1.83736223e+03,   2.91651223e+04,   1.83736223e+03,   1.83736223e+03,   2.91651223e+04, 
              1.83736223e+03,   1.83736223e+03,   2.91651223e+04,   1.83736223e+03,   1.83736223e+03, 
              2.91651223e+04,   1.83736223e+03,   1.83736223e+03,   2.91651223e+04,   1.83736223e+03, 
              1.83736223e+03,   2.91651223e+04,   1.83736223e+03,   1.83736223e+03,   2.91651223e+04, 
              1.83736223e+03,   1.83736223e+03,   2.91651223e+04,   1.83736223e+03,   1.83736223e+03, 
              2.91651223e+04,   1.83736223e+03,   1.83736223e+03,   2.91651223e+04,   1.83736223e+03, 
              1.83736223e+03,   2.91651223e+04,   1.83736223e+03,   1.83736223e+03,   2.91651223e+04, 
              1.83736223e+03,   1.83736223e+03,   2.91651223e+04,   1.83736223e+03,   1.83736223e+03, 
              2.91651223e+04,   1.83736223e+03,   1.83736223e+03,   2.91651223e+04,   1.83736223e+03, 
              1.83736223e+03,   2.91651223e+04,   1.83736223e+03,   1.83736223e+03,   2.91651223e+04, 
              1.83736223e+03,   1.83736223e+03,   2.91651223e+04,   1.83736223e+03,   1.83736223e+03, 
              2.91651223e+04,   1.83736223e+03,   1.83736223e+03,   2.91651223e+04,   1.83736223e+03, 
              1.83736223e+03,   2.91651223e+04,   1.83736223e+03,   1.83736223e+03,   2.91651223e+04, 
              1.83736223e+03,   1.83736223e+03,   2.91651223e+04,   1.83736223e+03,   1.83736223e+03, 
              2.91651223e+04,   1.83736223e+03,   1.83736223e+03,   2.91651223e+04,   1.83736223e+03, 
              1.83736223e+03,   2.91651223e+04,   1.83736223e+03,   1.83736223e+03,   2.91651223e+04, 
              1.83736223e+03,   1.83736223e+03,   2.91651223e+04,   1.83736223e+03,   1.83736223e+03, 
              2.91651223e+04,   1.83736223e+03,   1.83736223e+03,   2.91651223e+04,   1.83736223e+03, 
              1.83736223e+03 ]
         </m>
         <names shape='(96)'>
          [ O, H, H, O, H, 
            H, O, H, H, O, 
            H, H, O, H, H, 
            O, H, H, O, H, 
            H, O, H, H, O, 
            H, H, O, H, H, 
            O, H, H, O, H, 
            H, O, H, H, O, 
            H, H, O, H, H, 
            O, H, H, O, H, 
            H, O, H, H, O, 
            H, H, O, H, H, 
            O, H, H, O, H, 
            H, O, H, H, O, 
            H, H, O, H, H, 
            O, H, H, O, H, 
            H, O, H, H, O, 
            H, H, O, H, H, 
            O, H, H, O, H, 
            H ]
         </names>
      </beads>
      <cell shape='(3, 3)'>
       [   1.93885898e+01,   1.18720872e-15,   1.18720872e-15,   0.00000000e+00,   1.93885898e+01, 
           1.18720872e-15,   0.00000000e+00,   0.00000000e+00,   1.93885898e+01 ]
      </cell>
   </system>
</simulation>
