<simulation>
   <prng>
      <seed>32415</seed>
      <state>[{"bit_generator": "MT19937", "state": {"key": [3776224476, 3224009963, 1117170854, 1722218078, 3464887922, 501856575, 2723692660, 1485008997, 154024222, 2553594788, 1645853379, 961756410, 395451481, 3733897617, 3626306026, 2816999503, 1298550047, 3168510861, 583344469, 3583427025, 2324144447, 3495115625, 1127256014, 1701463779, 1320778275, 1892778442, 721728040, 570650202, 908559044, 3782975845, 3224644603, 2338307233, 79352671, 2865442366, 1545914293, 1782078268, 3484489193, 1953207999, 2057691763, 2140764523, 125685217, 2205804220, 1265040626, 1505949604, 3010469509, 1588274813, 3168551654, 3974363680, 2193942156, 2216587882, 1675710268, 1112961163, 871158519, 1857578714, 77306531, 3421389929, 704620771, 1280517603, 2046705960, 2227256758, 2225695864, 3391149068, 787470399, 1936150010, 4229310921, 142861302, 642676024, 1564256045, 2372703641, 892097861, 2393560762, 1298634360, 1093635905, 2592292289, 2867447302, 3566825266, 3640502095, 3539788328, 483878462, 37369403, 1973780894, 4144267272, 3294671292, 3825155338, 1518303032, 4053746002, 4072622188, 2195485523, 1754668950, 2290368525, 1772805920, 2526722357, 3221305620, 446633598, 3608300255, 4064368059, 2527996101, 2734933218, 1407381289, 3730987472, 2432130905, 1679462180, 39775775, 3506368829, 3883046853, 1062440413, 521386886, 65607133, 3538640261, 687077822, 91476460, 1813414082, 4262658747, 3243165441, 3530453880, 2583343186, 1836437322, 625893369, 1354497401, 1017809018, 174692369, 1854991275, 2873295722, 3195694751, 642208134, 2945359051, 772299638, 4271559672, 17592786, 3124744197, 28603097, 520760318, 2383008908, 424675697, 199863406, 1428280083, 2074899527, 223173198, 1757004969, 1993061241, 1445402935, 2266874420, 2294795115, 1970545432, 973094529, 2206608040, 1396153784, 418823678, 2694307654, 2924156753, 2768082376, 3103134683, 1815942611, 848766078, 1357405104, 1382143453, 1995293442, 2003181341, 2682354679, 4074779749, 3702600718, 135269436, 2543716178, 3124586749, 2921258293, 1803286431, 3580999367, 3741003267, 466483198, 766359316, 4051587011, 2007137923, 2145338325, 1296546861, 1882146202, 3267328513, 1262048761, 960776210, 1800378443, 3860030464, 1001499830, 2389551033, 1044734366, 3060848884, 2108040092, 1625341595, 1561150109, 3539251176, 1491310065, 1167926649, 3915104379, 1297865256, 1476974723, 753342019, 1129250509, 981214106, 4171033610, 2361852904, 1655557572, 3204691630, 3766754911, 1897944226, 2971682530, 1785028261, 988675952, 1380894900, 1886413996, 3154211478, 851053421, 741301615, 2665022237, 2935645581, 1978550062, 2009746197, 969153860, 3952603669, 1268083512, 761048195, 1679020125, 1886078299, 248478430, 3448627994, 3752774190, 2727083983, 3286754845, 551071086, 94990046, 2289792669, 1978191958, 1059954475, 2188769309, 2348952380, 2133773100, 1369342543, 3117472940, 226359800, 3010200382, 3846953949, 630405466, 3215695421, 848555078, 637706513, 377912271, 442386192, 3947101745, 1944929440, 1572117637, 2808544678, 2588577957, 806477589, 3155654020, 316714475, 3836480859, 3344076676, 2723707803, 2478409288, 3657802712, 3040145442, 1709386600, 3934166361, 632571524, 2015397740, 3071836922, 3719931248, 2207121650, 3238870406, 1819597787, 2829386726, 2404111834, 339793735, 889385129, 3341660034, 2834149072, 976542725, 503756389, 1931012614, 1312968946, 2467473506, 480450953, 1406312114, 2283738159, 4083574859, 1810831953, 1063398990, 870654010, 2817188204, 2319477357, 852168750, 551206107, 3208479623, 1623298420, 4041330306, 3502014736, 66956783, 4271675681, 3089774425, 4034832596, 4051557145, 150180800, 1987034048, 946484672, 4126461160, 889920329, 4095168185, 963371874, 833245688, 1940772927, 2402637093, 1478521466, 61860375, 2530571049, 1726841379, 3977135244, 3106743130, 3764824064, 473736207, 2459571594, 2163713222, 731886479, 4250161175, 3795456978, 342451780, 4188906469, 2446213341, 2604364670, 3623280032, 1894252737, 438947943, 4140956108, 1955835724, 2384722144, 3607715751, 2784912391, 2952319815, 1590923691, 871753343, 3672996846, 3439440050, 2751697033, 3556442199, 2825287724, 327279902, 2039928793, 2420861973, 3195899751, 1685671969, 3858738752, 439507348, 4220395377, 3852569955, 1855332793, 858608089, 391379285, 2490572175, 54510014, 1026606002, 2903291114, 1157147537, 2892590976, 2097569363, 4004196052, 499027353, 4158443160, 2936064366, 3649925514, 3588948917, 4195445077, 286143441, 3403795744, 3652142293, 2493801361, 678666849, 32118735, 2084661811, 1179946139, 1358293851, 4071857929, 4022330968, 3515319931, 1747866011, 1759496211, 3697678808, 888279259, 2965973489, 275161916, 2045819403, 2370986420, 3329126510, 1899470510, 685999009, 3311327279, 863264125, 1111568911, 713312317, 2854663100, 3271476679, 779466230, 358799216, 2617092350, 343875379, 2394303801, 605702370, 3931635119, 2497070354, 3429846902, 1331573549, 3774365484, 1139472053, 4109758360, 1043213284, 3667163266, 3951763617, 3572433396, 737527610, 922236427, 2817038438, 307656864, 2621522774, 536802741, 1613447400, 781790462, 4101567676, 2748220190, 2648571486, 3747155718, 1638812963, 556181573, 1982519129, 2893474977, 3873854208, 2263005930, 2465946494, 1227309223, 733102981, 2217196464, 677841796, 2252104337, 1335615229, 199539160, 823041289, 456115829, 2122136449, 4181437774, 450222890, 323590960, 1595969945, 1503516424, 82125929, 287936767, 2043750051, 1116066584, 2665304266, 1182195735, 284386731, 2821805797, 1124518563, 2688559679, 787775319, 4186784332, 596756575, 2687098116, 1264618640, 2205077743, 2066037499, 2502649036, 693172253, 638271896, 3310019115, 2189296423, 2028804683, 2161000297, 551201378, 129361732, 3984339219, 2180583901, 1889203768, 3032967955, 2925125287, 2198931682, 77140358, 2612200576, 969101311, 2164556346, 1975534338, 891216547, 2337176784, 3946563728, 3372851320, 1940197463, 453121916, 1408376540, 276194868, 1101153361, 2961951944, 256131226, 3699435673, 2852495259, 3243919236, 3660735498, 1786518270, 964243453, 836859826, 4079068835, 342382292, 2976261119, 3870166959, 2590957190, 4263815647, 1666472690, 533138507, 1036721794, 2574374832, 1340243214, 4046298337, 3504916552, 4248693374, 3867676544, 1172574947, 3546811220, 2827870766, 3390386641, 3798494743, 2108681656, 2704197952, 3164842517, 108865470, 3234722766, 1042323330, 1437663043, 1832547219, 3020847735, 3275211819, 2051260930, 1493961669, 1438984373, 69703373, 746674006, 1248832918, 3222728913, 3107563253, 3696592961, 609768503, 4050336463, 605739114, 3903409994, 590446466, 3743940214, 4190534261, 4039658874, 3951965651, 1212794457, 1082019125, 963720040, 505114776, 1490066462, 1177033261, 3277417650, 1017417443, 1678842488, 2330342048, 1502710210, 1699234144, 3936401778, 3561470255, 2606848429, 1534594072, 4012521123, 665761496, 2790607251, 397360245, 2556794655, 1764812603, 2303328058, 3515929014, 4126236848, 1783033126, 1938143019, 1486301804, 1372595512, 3956417281, 4026943042, 3480980038, 2771764607, 2235613970, 863631836, 1186000821, 3334583971, 1996277907, 3761210685, 3475173391, 1278029318, 2856243320, 4227806795, 1121744173, 1642342845, 945252473, 3113016264, 4243778218, 2578220958, 2004140351, 1129904108, 1101750094, 2950357756, 2042193581, 3589745438, 4149570403, 1150509331, 1990223989, 1515723610, 2383782814, 177900962, 2460333131, 2579706694, 2358535830, 1131694234, 3276676293, 280294694, 33749275, 2501864481, 3922766446, 762966476, 3300993382, 3313318347, 1593834392], "pos": 231}}]</state>
   </prng>
   <output prefix='simulation'>
      <properties shape='(5)' stride='40'> [ step, time{picosecond}, conserved, temperature{kelvin}, potential ] </properties>
      <trajectory filename='pos' stride='4' format='ase' flush='100'>positions</trajectory>
      <checkpoint stride='200'>51</checkpoint>
   </output>
   <step>10000</step>
   <total_steps>10000</total_steps>
   <ffsocket mode='unix' name='maceoff23'>
      <address>driver</address>
   </ffsocket>
   <system>
      <forces>
         <force forcefield='maceoff23'>
         </force>
      </forces>
      <ensemble>
         <temperature>  9.50044560e-04</temperature>
         <eens>  1.17545700e-03</eens>
         <hamiltonian_weights shape='(1)'> [   1.00000000e+00 ] </hamiltonian_weights>
         <time>  2.06706865e+05</time>
      </ensemble>
      <motion mode='dynamics'>
         <dynamics mode='nvt'>
            <thermostat mode='svr'>
               <ethermo>  5.60366979e-02</ethermo>
               <tau>  4.13413730e+03</tau>
            </thermostat>
            <timestep>  2.06706865e+01</timestep>
            <nmts shape='(1)'> [ 1 ] </nmts>
         </dynamics>
      </motion>
      <beads natoms='96' nbeads='1'>
         <q shape='(1, 288)'>
          [   4.55699643e+00,   1.21486120e+01,  -1.90944597e+00,   5.92341532e+00,   1.09963207e+01, 
             -2.43041128e+00,   4.19365591e+00,   1.29051130e+01,  -3.51288667e+00,   1.78374625e+01, 
              2.33985460e+01,  -4.91733809e+00,   1.60399480e+01,   2.36544839e+01,  -4.87488140e+00, 
              1.78438084e+01,   2.16415699e+01,  -4.33570432e+00,   5.70908903e+00,   4.81928930e+00, 
              1.17559367e+01,   5.12128397e+00,   5.23205041e+00,   1.00668802e+01,   4.53701596e+00, 
              5.65319069e+00,   1.29396864e+01,  -8.05692622e-02,   2.63063761e+00,   3.27837695e+00, 
             -1.90023268e+00,   2.42685970e+00,   3.86312114e+00,   7.94785396e-01,   3.41602081e+00, 
              4.69727948e+00,  -4.75975630e+00,   1.36341565e+00,   2.42893238e+01,  -5.14790917e+00, 
             -4.39671378e-01,   2.45179036e+01,  -5.87647596e+00,   2.26465104e+00,   2.54066388e+01, 
              1.40683311e+00,   5.16840947e+00,   1.85937337e+01,   7.16653031e-01,   4.24498445e+00, 
              2.00516618e+01,   2.31181179e-01,   4.69351355e+00,   1.72650549e+01,   1.68034294e+01, 
              8.77900356e+00,   2.94569990e-01,   1.78180224e+01,   9.56576594e+00,   1.58011602e+00, 
              1.78796562e+01,   7.28644659e+00,   5.76417473e-02,  -7.75956218e+00,   8.27962215e+00, 
              5.92362775e-01,  -6.02988537e+00,   8.63573277e+00,   4.06566272e-02,  -7.58466458e+00, 
              6.45492312e+00,   9.30245874e-01,   2.05755945e+01,  -1.11904965e+01,  -6.05343728e+00, 
              1.91732290e+01,  -1.22648601e+01,  -6.49037892e+00,   2.09298275e+01,  -1.19215801e+01, 
             -4.41540200e+00,   1.25040086e+01,   4.93824972e+00,   1.48589159e+01,   1.14334353e+01, 
              6.42971395e+00,   1.46330103e+01,   1.18593260e+01,   4.16017578e+00,   1.63365999e+01, 
             -5.96483187e+00,   8.98637364e+00,   8.92309001e+00,  -6.19805329e+00,   7.21159565e+00, 
              9.03108369e+00,  -7.51894419e+00,   9.72866185e+00,   8.68802836e+00,   5.01521972e+00, 
              6.93944324e-02,   1.37538570e+01,   5.50966203e+00,   1.66008419e+00,   1.31731912e+01, 
              3.19369597e+00,  -1.93429165e-01,   1.33742979e+01,   5.12802875e-01,  -2.67614725e+00, 
              1.32415230e+00,   9.61953524e-02,  -1.16466468e+00,   2.07709637e+00,   2.31741795e+00, 
             -2.65922846e+00,   1.24574036e+00,   7.94367617e+00,   4.41660485e+00,   6.00782588e+00, 
              8.91537221e+00,   6.02821483e+00,   5.68880881e+00,   7.65144127e+00,   3.85296979e+00, 
              4.31976958e+00,  -8.74938219e+00,   1.39545489e+01,   7.49753404e+00,  -9.44832216e+00, 
              1.26989504e+01,   6.28780131e+00,  -1.02949713e+01,   1.50234996e+01,   7.65655791e+00, 
              2.93912085e+00,   5.72550613e+00,   6.51817977e+00,   4.52432935e+00,   4.93859586e+00, 
              6.45672591e+00,   2.98391779e+00,   6.92248874e+00,   5.14264995e+00,  -1.05399130e+01, 
              9.24141638e+00,   1.58798299e+01,  -9.63048850e+00,   8.88386635e+00,   1.74553172e+01, 
             -9.95807373e+00,   1.08172609e+01,   1.52494331e+01,  -3.52173727e+00,   1.16780622e+01, 
              1.27539156e+01,  -2.23313364e+00,   1.07147951e+01,   1.35768436e+01,  -4.09656490e+00, 
              1.08584193e+01,   1.11604421e+01,   2.53999077e+01,   2.81708453e+00,   1.08258572e+00, 
              2.50265914e+01,   1.04878138e+00,   9.28678179e-01,   2.39326577e+01,   3.42859960e+00, 
              3.22811998e-01,   1.24429290e+01,   3.83510257e+00,   8.77009561e+00,   1.26545647e+01, 
              3.50487896e+00,   1.06874106e+01,   1.06215572e+01,   3.99922407e+00,   8.48034964e+00, 
              2.85092985e+01,   9.85357098e+00,   5.05708203e+00,   2.98439086e+01,   9.25394495e+00, 
              3.88195722e+00,   2.69912215e+01,   9.72060140e+00,   4.14113779e+00,  -4.02527192e+00, 
              1.60114844e+01,   6.91473374e+00,  -3.14199341e+00,   1.60139241e+01,   8.47437545e+00, 
             -5.58117291e+00,   1.51506935e+01,   7.22762604e+00,   1.11610408e+01,   1.64350382e+01, 
              1.75536349e+01,   9.59493837e+00,   1.65406743e+01,   1.84396494e+01,   1.07124415e+01, 
              1.56674410e+01,   1.59737267e+01,   1.68996928e+01,   1.87817703e+01,   1.61901478e+01, 
              1.50456537e+01,   1.86311219e+01,   1.64814719e+01,   1.75903757e+01,   1.76521747e+01, 
              1.76323564e+01,   6.57015469e+00,  -2.80997660e+00,   9.57287776e+00,   6.30848450e+00, 
             -1.62415312e+00,   1.09133337e+01,   5.36121843e+00,  -4.05069691e+00,   9.87307396e+00, 
              1.88982915e+01,   1.23388481e+01,   3.88518097e+00,   1.78256536e+01,   1.29675645e+01, 
              5.13736205e+00,   1.89931281e+01,   1.38713746e+01,   2.81674765e+00,  -9.06749793e+00, 
              1.34685226e+01,   1.29645348e+01,  -9.52995511e+00,   1.36522775e+01,   1.12288508e+01, 
             -7.43966568e+00,   1.26289813e+01,   1.30461878e+01,   5.38571027e+00,   1.73469855e+01, 
              1.86488842e+01,   4.94962345e+00,   1.55994649e+01,   1.83941354e+01,   5.22729223e+00, 
              1.79618742e+01,   1.69185470e+01,   1.13549027e+01,   2.25659848e+01,   2.02739225e+01, 
              1.22633284e+01,   2.16801943e+01,   2.16808067e+01,   9.77424017e+00,   2.18812871e+01, 
              2.04594893e+01,  -1.30074567e+00,   1.61527170e+01,   1.18536193e+01,  -2.28805410e+00, 
              1.46560884e+01,   1.19506282e+01,  -2.02201906e+00,   1.73800023e+01,   1.30697643e+01, 
              3.96486774e+00,   9.61642097e+00,   3.17156073e+00,   2.52703163e+00,   1.04209533e+01, 
              3.87530480e+00,   4.03073733e+00,   1.01525634e+01,   1.44502777e+00,   2.91341135e+00, 
              1.33474230e+01,   1.24981325e+01,   2.41105722e+00,   1.15782198e+01,   1.21377779e+01, 
              1.54270219e+00,   1.43593274e+01,   1.29811724e+01 ]
         </q>
         <p shape='(1, 288)'>
          [  -2.81061316e+00,   6.45533804e+00,   9.98210399e+00,  -1.54776521e+00,   4.00138817e-02, 
             -1.20223303e+00,  -7.71288775e-01,  -1.39043082e+00,  -1.53736659e+00,  -1.08917107e+01, 
              3.08318620e-01,  -4.03305137e+00,   2.20797518e-01,  -7.49875090e-01,  -2.70300602e+00, 
              7.83806987e-01,   7.35783490e-01,  -1.21201577e+00,  -1.59989317e-01,   6.44597229e+00, 
             -4.31103301e+00,   3.48500601e+00,  -1.31691168e+00,   4.37683646e-01,  -9.09509620e-01, 
             -8.18395778e-01,   1.07317053e+00,  -3.52209748e+00,   4.08570874e-01,   5.52256093e+00, 
              1.37712298e+00,   5.14997234e-01,   1.66451730e+00,  -9.56688991e-01,   1.98804195e+00, 
              2.19739482e+00,   1.05702976e+00,   1.58139989e-01,  -7.53054653e+00,   9.13199200e-01, 
              1.38451600e+00,  -3.87550022e+00,   4.18543285e-01,   1.75781772e+00,   2.12469449e-01, 
             -4.25863527e+00,   4.68387718e+00,   3.05787611e+00,   2.36743657e-01,  -2.21237910e+00, 
              8.40397227e-01,  -7.22301709e-02,  -8.99380056e-01,  -4.68870001e-01,  -3.18999362e+00, 
             -1.31828910e+00,  -1.75459408e+00,  -9.75888108e-01,  -2.58426620e-01,  -1.36536084e+00, 
             -2.18439133e+00,  -8.02547161e-01,  -1.68723314e+00,  -2.46034987e+00,  -2.70862359e+00, 
             -2.34743817e+00,  -1.12897576e+00,   2.97167769e-01,  -2.97389959e-01,  -3.59140427e-01, 
              1.74049830e-02,   2.58962198e-01,   4.66395842e+00,  -6.78432548e+00,   1.02864020e+00, 
              3.80296608e-01,   2.10383176e+00,  -5.02532384e-01,  -1.98363291e-01,  -1.31960524e+00, 
              1.31022167e-01,  -3.77207035e+00,   1.31961536e+00,   2.08519690e+00,   5.61688567e-02, 
             -1.18987242e+00,   1.54681232e+00,   1.74013171e+00,  -1.39510760e+00,   1.23915919e+00, 
             -7.98510674e+00,  -1.42190893e+00,  -5.48852217e+00,   1.08599309e+00,   1.31236415e+00, 
             -2.13263796e+00,  -1.99859020e+00,   2.67211495e-02,  -9.69971182e-01,  -2.11499706e+00, 
              2.25391647e+00,   6.93048184e+00,   2.64642318e+00,  -2.13943312e-01,  -1.02504860e+00, 
             -2.01866861e+00,  -8.55983268e-01,  -1.35213463e+00,   7.41729461e+00,   4.39561067e+00, 
             -2.16667002e+00,  -6.54707016e-01,   1.19984877e+00,   1.01919111e+00,  -5.11174330e-01, 
              2.48262216e+00,   7.06268416e-01,   3.44797784e+00,  -3.86634151e+00,  -1.85067828e+00, 
              1.00956690e+00,  -6.81579457e-01,  -2.03816279e-01,   6.85529478e-01,   5.87340210e-01, 
              7.11004292e-01,   9.14085085e+00,   3.46607021e+00,  -5.11023040e-01,  -2.17429517e-01, 
              4.13806793e-01,   3.57747775e-01,  -8.54325939e-01,   1.36541042e+00,  -8.34820048e-01, 
             -6.01389253e+00,  -1.86193009e+00,  -2.95057898e+00,   1.15371498e+00,   7.96067716e-01, 
             -2.74306460e+00,  -1.31995341e+00,   8.53029365e-01,  -3.09431287e+00,   4.66673393e+00, 
             -3.57197871e+00,   3.33436222e+00,  -1.45121059e+00,   9.40807038e-01,  -6.21468650e-02, 
             -1.71991177e+00,  -4.51766612e-01,   5.67010285e-01,   7.02626489e+00,  -5.27681148e+00, 
              5.36557027e+00,   1.08180593e+00,  -3.04360802e+00,  -2.70459071e-01,   8.67333466e-01, 
              8.27278092e-01,   4.71777844e-01,   8.13022193e+00,   9.51451925e+00,  -1.41565289e+00, 
              3.54101201e-01,  -5.23735325e-01,  -3.24365220e-01,  -1.29530215e+00,   7.02573254e-03, 
             -9.86110341e-01,  -6.46174266e+00,   6.12342589e+00,   2.67043370e+00,   8.79497348e-01, 
             -1.83144934e-01,  -1.14621878e+00,  -1.60609971e+00,   5.43622535e-01,   1.66957765e+00, 
              9.30329300e+00,  -7.96327628e+00,   3.11160981e+00,  -8.23111807e-01,  -8.81779311e-01, 
             -1.50910902e-01,  -9.23262372e-01,   9.63549743e-01,   1.35108573e-03,  -3.79038829e+00, 
             -2.53117942e+00,   5.75196536e+00,  -4.00656327e+00,   3.44799264e-01,   7.15675574e-01, 
             -1.66552094e-01,   2.61794788e+00,   1.58533866e-01,  -7.52746590e+00,  -4.75879012e+00, 
             -6.32806951e+00,  -6.29573310e-01,   9.68979269e-01,  -8.51502286e-01,  -1.72569553e+00, 
             -8.67766505e-01,  -3.49869815e-01,   4.86561481e+00,  -3.47133520e+00,   3.71461953e+00, 
             -6.33023638e-01,   6.48967529e-01,  -7.52355612e-01,  -1.89469563e+00,  -2.45988467e+00, 
             -5.94817024e-01,   1.44495677e+01,  -8.56040102e-02,   8.21487011e+00,  -2.06122402e+00, 
             -5.61120708e-01,  -1.76586204e+00,  -3.10935871e+00,   1.63429294e+00,  -3.42171744e-02, 
              7.60194155e-01,   5.51172269e+00,  -1.14340085e+01,   3.06634296e-01,   8.70009022e-02, 
             -1.07307755e+00,  -2.78496223e-01,  -5.85022563e-01,  -4.79946477e-01,  -5.27542847e+00, 
             -2.90995836e+00,   3.99861778e+00,   8.66274295e-02,   3.86491658e-01,   3.04976200e-01, 
              3.47050578e-01,  -6.55863404e-01,  -1.77875245e+00,  -1.16932165e+00,   1.84267074e+00, 
              4.88007594e+00,  -1.13474079e+00,   6.62651392e-01,   7.44532916e-01,  -1.07981705e+00, 
              6.64188343e-01,  -4.69975820e-01,   2.66069549e+00,  -1.92492133e+00,   1.24216336e+01, 
              4.86561634e-01,   1.47461523e+00,   1.32423965e+00,  -1.61594235e-01,  -6.44538711e-01, 
             -1.10437010e+00,   9.50341313e+00,  -4.03543503e+00,  -8.04637035e+00,   1.79604639e+00, 
             -6.37861862e-01,   4.73516078e-02,   9.13312088e-01,   2.03852688e-01,   1.00393347e+00, 
              6.51177753e+00,  -4.27527428e+00,  -1.42715382e+00,   8.50660230e-01,  -1.41958379e+00, 
             -1.06812272e+00,  -1.47565855e+00,   1.94384528e+00,   1.97591839e+00,  -4.90182096e+00, 
             -7.78261494e-01,  -2.87509116e+00,  -1.02376435e-01,   4.50273771e-01,   1.23813679e-01, 
              1.49541962e+00,   4.29615374e-01,   1.36576531e+00 ]
         </p>
         <m shape='(96)'>
          [   2.91651223e+04,   1.83736223e+03,   1.83736223e+03,   2.91651223e+04,   1.83736223e+03, 
              1.83736223e+03,   2.91651223e+04,   1.83736223e+03,   1.83736223e+03,   2.91651223e+04, 
              1.83736223e+03,   1.83736223e+03,   2.91651223e+04,   1.83736223e+03,   1.83736223e+03, 
              2.91651223e+04,   1.83736223e+03,   1.83736223e+03,   2.91651223e+04,   1.83736223e+03, 
              1.83736223e+03,   2.91651223e+04,   1.83736223e+03,   1.83736223e+03,   2.91651223e+04, 
              1.83736223e+03,   1.83736223e+03,   2.91651223e+04,   1.83736223e+03,   1.83736223e+03, 
              2.91651223e+04,   1.83736223e+03,   1.83736223e+03,   2.91651223e+04,   1.83736223e+03, 
              1.83736223e+03,   2.91651223e+04,   1.83736223e+03,   1.83736223e+03,   2.91651223e+04, 
              1.83736223e+03,   1.83736223e+03,   2.91651223e+04,   1.83736223e+03,   1.83736223e+03, 
              2.91651223e+04,   1.83736223e+03,   1.83736223e+03,   2.91651223e+04,   1.83736223e+03, 
              1.83736223e+03,   2.91651223e+04,   1.83736223e+03,   1.83736223e+03,   2.91651223e+04, 
              1.83736223e+03,   1.83736223e+03,   2.91651223e+04,   1.83736223e+03,   1.83736223e+03, 
              2.91651223e+04,   1.83736223e+03,   1.83736223e+03,   2.91651223e+04,   1.83736223e+03, 
              1.83736223e+03,   2.91651223e+04,   1.83736223e+03,   1.83736223e+03,   2.91651223e+04, 
              1.83736223e+03,   1.83736223e+03,   2.91651223e+04,   1.83736223e+03,   1.83736223e+03, 
              2.91651223e+04,   1.83736223e+03,   1.83736223e+03,   2.91651223e+04,   1.83736223e+03, 
              1.83736223e+03,   2.91651223e+04,   1.83736223e+03,   1.83736223e+03,   2.91651223e+04, 
              1.83736223e+03,   1.83736223e+03,   2.91651223e+04,   1.83736223e+03,   1.83736223e+03, 
              2.91651223e+04,   1.83736223e+03,   1.83736223e+03,   2.91651223e+04,   1.83736223e+03, 
              1.83736223e+03 ]
         </m>
         <names shape='(96)'>
          [ O, H, H, O, H, 
            H, O, H, H, O, 
            H, H, O, H, H, 
            O, H, H, O, H, 
            H, O, H, H, O, 
            H, H, O, H, H, 
            O, H, H, O, H, 
            H, O, H, H, O, 
            H, H, O, H, H, 
            O, H, H, O, H, 
            H, O, H, H, O, 
            H, H, O, H, H, 
            O, H, H, O, H, 
            H, O, H, H, O, 
            H, H, O, H, H, 
            O, H, H, O, H, 
            H, O, H, H, O, 
            H, H, O, H, H, 
            O, H, H, O, H, 
            H ]
         </names>
      </beads>
      <cell shape='(3, 3)'>
       [   1.93885898e+01,   1.18720872e-15,   1.18720872e-15,   0.00000000e+00,   1.93885898e+01, 
           1.18720872e-15,   0.00000000e+00,   0.00000000e+00,   1.93885898e+01 ]
      </cell>
   </system>
</simulation>
